<?xml version="1.0" encoding="UTF-8"?>

<!-- generated on 2025-11-06 16:28:42 by Eclipse SUMO sumo Version 1.24.0
<sumoConfiguration xmlns:xsi="http://www.w3.org/2001/XMLSchema-instance" xsi:noNamespaceSchemaLocation="http://sumo.dlr.de/xsd/sumoConfiguration.xsd">

    <input>
        <net-file value="./scenario/gen0611/vietnamese_traffic_3x3/grid.net.xml"/>
        <route-files value="./scenario/gen0611/vietnamese_traffic_3x3/routes.rou.xml"/>
        <additional-files value="./scenario/gen0611/vietnamese_traffic_3x3/tls.add.xml"/>
    </input>

    <output>
        <tripinfo-output value="./scenario/gen0611/vietnamese_traffic_3x3/tripinfo.xml"/>
    </output>

    <time>
        <begin value="0"/>
        <end value="3600"/>
    </time>

    <processing>
        <time-to-teleport value="-1"/>
    </processing>

    <report>
        <verbose value="true"/>
        <no-warnings value="true"/>
        <no-step-log value="true"/>
    </report>

    <traci_server>
        <remote-port value="52326"/>
    </traci_server>

</sumoConfiguration>
-->

<tripinfos xmlns:xsi="http://www.w3.org/2001/XMLSchema-instance" xsi:noNamespaceSchemaLocation="http://sumo.dlr.de/xsd/tripinfo_file.xsd">
    <tripinfo id="flow_27.0" depart="0.00" departLane="e30_0" departPos="2.10" departSpeed="14.49" departDelay="0.00" arrival="69.00" arrivalLane="e25_1" arrivalPos="189.60" arrivalSpeed="14.15" duration="69.00" routeLength="797.90" waitingTime="6.00" waitingCount="1" stopTime="0.00" timeLoss="13.42" rerouteNo="0" devices="tripinfo_flow_27.0" vType="motorcycle" speedFactor="1.04" vaporized=""/>
    <tripinfo id="flow_28.0" depart="0.00" departLane="e30_1" departPos="4.60" departSpeed="15.11" departDelay="0.00" arrival="69.00" arrivalLane="e25_0" arrivalPos="189.60" arrivalSpeed="14.45" duration="69.00" routeLength="795.40" waitingTime="8.00" waitingCount="1" stopTime="0.00" timeLoss="15.81" rerouteNo="0" devices="tripinfo_flow_28.0" vType="car" speedFactor="1.09" vaporized=""/>
    <tripinfo id="flow_21.0" depart="0.00" departLane="e26_0" departPos="2.10" departSpeed="14.31" departDelay="0.00" arrival="71.00" arrivalLane="e33_0" arrivalPos="189.60" arrivalSpeed="13.34" duration="71.00" routeLength="797.90" waitingTime="5.00" waitingCount="1" stopTime="0.00" timeLoss="14.97" rerouteNo="0" devices="tripinfo_flow_21.0" vType="motorcycle" speedFactor="1.03" vaporized=""/>
    <tripinfo id="flow_18.0" depart="0.00" departLane="e24_0" departPos="2.10" departSpeed="15.31" departDelay="0.00" arrival="72.00" arrivalLane="e31_0" arrivalPos="189.60" arrivalSpeed="15.17" duration="72.00" routeLength="797.90" waitingTime="6.00" waitingCount="2" stopTime="0.00" timeLoss="19.41" rerouteNo="0" devices="tripinfo_flow_18.0" vType="motorcycle" speedFactor="1.10" vaporized=""/>
    <tripinfo id="flow_19.0" depart="0.00" departLane="e24_1" departPos="4.60" departSpeed="12.51" departDelay="0.00" arrival="76.00" arrivalLane="e31_0" arrivalPos="189.60" arrivalSpeed="11.81" duration="76.00" routeLength="795.40" waitingTime="2.00" waitingCount="1" stopTime="0.00" timeLoss="11.50" rerouteNo="0" devices="tripinfo_flow_19.0" vType="car" speedFactor="0.90" vaporized=""/>
    <tripinfo id="flow_22.0" depart="0.00" departLane="e26_1" departPos="4.60" departSpeed="13.29" departDelay="0.00" arrival="76.00" arrivalLane="e33_0" arrivalPos="189.60" arrivalSpeed="12.97" duration="76.00" routeLength="795.40" waitingTime="8.00" waitingCount="1" stopTime="0.00" timeLoss="15.64" rerouteNo="0" devices="tripinfo_flow_22.0" vType="car" speedFactor="0.96" vaporized=""/>
    <tripinfo id="flow_20.0" depart="1.00" departLane="e24_0" departPos="10.10" departSpeed="9.76" departDelay="1.00" arrival="78.00" arrivalLane="e31_0" arrivalPos="189.60" arrivalSpeed="13.49" duration="77.00" routeLength="789.90" waitingTime="3.00" waitingCount="1" stopTime="0.00" timeLoss="19.31" rerouteNo="0" devices="tripinfo_flow_20.0" vType="bus_truck" speedFactor="1.00" vaporized=""/>
    <tripinfo id="flow_27.1" depart="20.00" departLane="e30_0" departPos="2.10" departSpeed="13.47" departDelay="0.75" arrival="90.00" arrivalLane="e25_0" arrivalPos="189.60" arrivalSpeed="13.16" duration="70.00" routeLength="797.90" waitingTime="2.00" waitingCount="1" stopTime="0.00" timeLoss="10.23" rerouteNo="0" devices="tripinfo_flow_27.1" vType="motorcycle" speedFactor="0.97" vaporized=""/>
    <tripinfo id="flow_7.0" depart="0.00" departLane="e46_1" departPos="4.60" departSpeed="16.03" departDelay="0.00" arrival="93.00" arrivalLane="e41_0" arrivalPos="189.60" arrivalSpeed="15.21" duration="93.00" routeLength="795.40" waitingTime="29.00" waitingCount="1" stopTime="0.00" timeLoss="43.33" rerouteNo="0" devices="tripinfo_flow_7.0" vType="car" speedFactor="1.15" vaporized=""/>
    <tripinfo id="flow_29.0" depart="1.00" departLane="e30_1" departPos="10.10" departSpeed="9.82" departDelay="1.00" arrival="95.00" arrivalLane="e25_0" arrivalPos="189.60" arrivalSpeed="13.75" duration="94.00" routeLength="789.90" waitingTime="11.00" waitingCount="2" stopTime="0.00" timeLoss="36.16" rerouteNo="0" devices="tripinfo_flow_29.0" vType="bus_truck" speedFactor="1.00" vaporized=""/>
    <tripinfo id="flow_0.0" depart="0.00" departLane="e42_1" departPos="2.10" departSpeed="12.74" departDelay="0.00" arrival="98.00" arrivalLane="e39_0" arrivalPos="189.60" arrivalSpeed="12.38" duration="98.00" routeLength="984.68" waitingTime="8.00" waitingCount="1" stopTime="0.00" timeLoss="19.18" rerouteNo="0" devices="tripinfo_flow_0.0" vType="motorcycle" speedFactor="0.92" vaporized=""/>
    <tripinfo id="flow_6.0" depart="0.00" departLane="e46_0" departPos="2.10" departSpeed="16.37" departDelay="0.00" arrival="100.00" arrivalLane="e39_1" arrivalPos="189.60" arrivalSpeed="15.23" duration="100.00" routeLength="984.68" waitingTime="29.00" waitingCount="1" stopTime="0.00" timeLoss="37.95" rerouteNo="0" devices="tripinfo_flow_6.0" vType="motorcycle" speedFactor="1.18" vaporized=""/>
    <tripinfo id="flow_33.0" depart="0.00" departLane="e34_0" departPos="2.10" departSpeed="12.18" departDelay="0.00" arrival="101.00" arrivalLane="e29_0" arrivalPos="189.60" arrivalSpeed="11.26" duration="101.00" routeLength="797.90" waitingTime="21.00" waitingCount="2" stopTime="0.00" timeLoss="34.92" rerouteNo="0" devices="tripinfo_flow_33.0" vType="motorcycle" speedFactor="0.88" vaporized=""/>
    <tripinfo id="flow_10.0" depart="0.00" departLane="e36_1" departPos="4.60" departSpeed="16.28" departDelay="0.00" arrival="104.00" arrivalLane="e43_0" arrivalPos="189.60" arrivalSpeed="15.60" duration="104.00" routeLength="795.40" waitingTime="30.00" waitingCount="2" stopTime="0.00" timeLoss="54.56" rerouteNo="0" devices="tripinfo_flow_10.0" vType="car" speedFactor="1.17" vaporized=""/>
    <tripinfo id="flow_35.0" depart="2.00" departLane="e34_1" departPos="10.10" departSpeed="9.53" departDelay="2.00" arrival="104.00" arrivalLane="e29_1" arrivalPos="189.60" arrivalSpeed="13.79" duration="102.00" routeLength="789.90" waitingTime="13.00" waitingCount="3" stopTime="0.00" timeLoss="44.87" rerouteNo="0" devices="tripinfo_flow_35.0" vType="bus_truck" speedFactor="1.00" vaporized=""/>
    <tripinfo id="flow_15.1" depart="16.00" departLane="e40_0" departPos="2.10" departSpeed="14.22" departDelay="0.00" arrival="105.00" arrivalLane="e47_0" arrivalPos="189.60" arrivalSpeed="13.60" duration="89.00" routeLength="797.90" waitingTime="15.00" waitingCount="2" stopTime="0.00" timeLoss="32.01" rerouteNo="0" devices="tripinfo_flow_15.1" vType="motorcycle" speedFactor="1.02" vaporized=""/>
    <tripinfo id="flow_9.2" depart="32.00" departLane="e36_0" departPos="2.10" departSpeed="13.27" departDelay="0.00" arrival="105.00" arrivalLane="e43_1" arrivalPos="189.60" arrivalSpeed="13.07" duration="73.00" routeLength="797.90" waitingTime="0.00" waitingCount="0" stopTime="0.00" timeLoss="12.14" rerouteNo="0" devices="tripinfo_flow_9.2" vType="motorcycle" speedFactor="0.96" vaporized=""/>
    <tripinfo id="flow_16.0" depart="0.00" departLane="e40_1" departPos="4.60" departSpeed="16.39" departDelay="0.00" arrival="106.00" arrivalLane="e47_0" arrivalPos="189.60" arrivalSpeed="14.46" duration="106.00" routeLength="795.40" waitingTime="31.00" waitingCount="3" stopTime="0.00" timeLoss="57.26" rerouteNo="0" devices="tripinfo_flow_16.0" vType="car" speedFactor="1.18" vaporized=""/>
    <tripinfo id="flow_11.0" depart="1.00" departLane="e36_1" departPos="10.10" departSpeed="11.30" departDelay="1.00" arrival="107.00" arrivalLane="e43_1" arrivalPos="189.60" arrivalSpeed="13.79" duration="106.00" routeLength="789.90" waitingTime="22.00" waitingCount="3" stopTime="0.00" timeLoss="48.50" rerouteNo="0" devices="tripinfo_flow_11.0" vType="bus_truck" speedFactor="1.00" vaporized=""/>
    <tripinfo id="flow_15.0" depart="0.00" departLane="e40_0" departPos="2.10" departSpeed="13.52" departDelay="0.00" arrival="107.00" arrivalLane="e47_1" arrivalPos="189.60" arrivalSpeed="13.45" duration="107.00" routeLength="797.90" waitingTime="24.00" waitingCount="3" stopTime="0.00" timeLoss="47.80" rerouteNo="0" devices="tripinfo_flow_15.0" vType="motorcycle" speedFactor="0.97" vaporized=""/>
    <tripinfo id="flow_9.1" depart="16.00" departLane="e36_0" departPos="2.10" departSpeed="12.49" departDelay="0.00" arrival="109.00" arrivalLane="e43_0" arrivalPos="189.60" arrivalSpeed="11.95" duration="93.00" routeLength="797.90" waitingTime="11.00" waitingCount="1" stopTime="0.00" timeLoss="28.71" rerouteNo="0" devices="tripinfo_flow_9.1" vType="motorcycle" speedFactor="0.90" vaporized=""/>
    <tripinfo id="flow_15.2" depart="32.00" departLane="e40_0" departPos="2.10" departSpeed="14.34" departDelay="0.00" arrival="109.00" arrivalLane="e47_0" arrivalPos="189.60" arrivalSpeed="14.10" duration="77.00" routeLength="797.90" waitingTime="12.00" waitingCount="1" stopTime="0.00" timeLoss="21.32" rerouteNo="0" devices="tripinfo_flow_15.2" vType="motorcycle" speedFactor="1.03" vaporized=""/>
    <tripinfo id="flow_7.1" depart="30.00" departLane="e46_1" departPos="4.60" departSpeed="14.21" departDelay="0.00" arrival="113.00" arrivalLane="e41_0" arrivalPos="189.60" arrivalSpeed="13.50" duration="83.00" routeLength="795.40" waitingTime="13.00" waitingCount="1" stopTime="0.00" timeLoss="26.28" rerouteNo="0" devices="tripinfo_flow_7.1" vType="car" speedFactor="1.02" vaporized=""/>
    <tripinfo id="flow_18.1" depart="24.00" departLane="e24_1" departPos="2.10" departSpeed="12.26" departDelay="0.00" arrival="114.00" arrivalLane="e31_0" arrivalPos="189.60" arrivalSpeed="11.32" duration="90.00" routeLength="797.90" waitingTime="8.00" waitingCount="1" stopTime="0.00" timeLoss="24.23" rerouteNo="0" devices="tripinfo_flow_18.1" vType="motorcycle" speedFactor="0.88" vaporized=""/>
    <tripinfo id="flow_0.3" depart="24.00" departLane="e42_0" departPos="2.10" departSpeed="14.11" departDelay="0.00" arrival="115.00" arrivalLane="e37_0" arrivalPos="189.60" arrivalSpeed="13.55" duration="91.00" routeLength="797.90" waitingTime="9.00" waitingCount="2" stopTime="0.00" timeLoss="34.32" rerouteNo="0" devices="tripinfo_flow_0.3" vType="motorcycle" speedFactor="1.02" vaporized=""/>
    <tripinfo id="flow_6.1" depart="8.00" departLane="e46_0" departPos="2.10" departSpeed="14.12" departDelay="0.00" arrival="116.00" arrivalLane="e41_0" arrivalPos="189.60" arrivalSpeed="13.38" duration="108.00" routeLength="797.90" waitingTime="27.00" waitingCount="4" stopTime="0.00" timeLoss="50.61" rerouteNo="0" devices="tripinfo_flow_6.1" vType="motorcycle" speedFactor="1.02" vaporized=""/>
    <tripinfo id="flow_27.3" depart="58.00" departLane="e30_0" departPos="2.10" departSpeed="14.68" departDelay="0.25" arrival="116.00" arrivalLane="e25_1" arrivalPos="189.60" arrivalSpeed="14.09" duration="58.00" routeLength="797.90" waitingTime="0.00" waitingCount="0" stopTime="0.00" timeLoss="3.59" rerouteNo="0" devices="tripinfo_flow_27.3" vType="motorcycle" speedFactor="1.06" vaporized=""/>
    <tripinfo id="flow_6.6" depart="48.00" departLane="e46_0" departPos="2.10" departSpeed="13.56" departDelay="0.00" arrival="117.00" arrivalLane="e41_1" arrivalPos="189.60" arrivalSpeed="12.65" duration="69.00" routeLength="797.90" waitingTime="0.00" waitingCount="0" stopTime="0.00" timeLoss="9.69" rerouteNo="0" devices="tripinfo_flow_6.6" vType="motorcycle" speedFactor="0.98" vaporized=""/>
    <tripinfo id="flow_8.0" depart="1.00" departLane="e46_1" departPos="10.10" departSpeed="11.33" departDelay="1.00" arrival="118.00" arrivalLane="e41_0" arrivalPos="189.60" arrivalSpeed="13.83" duration="117.00" routeLength="789.90" waitingTime="39.00" waitingCount="2" stopTime="0.00" timeLoss="59.52" rerouteNo="0" devices="tripinfo_flow_8.0" vType="bus_truck" speedFactor="1.00" vaporized=""/>
    <tripinfo id="flow_6.7" depart="56.00" departLane="e46_1" departPos="2.10" departSpeed="15.15" departDelay="0.00" arrival="118.00" arrivalLane="e41_1" arrivalPos="189.60" arrivalSpeed="14.38" duration="62.00" routeLength="797.90" waitingTime="0.00" waitingCount="0" stopTime="0.00" timeLoss="9.25" rerouteNo="0" devices="tripinfo_flow_6.7" vType="motorcycle" speedFactor="1.09" vaporized=""/>
    <tripinfo id="flow_0.1" depart="8.00" departLane="e42_0" departPos="2.10" departSpeed="11.87" departDelay="0.00" arrival="119.00" arrivalLane="e37_1" arrivalPos="189.60" arrivalSpeed="11.01" duration="111.00" routeLength="797.90" waitingTime="20.00" waitingCount="4" stopTime="0.00" timeLoss="43.78" rerouteNo="0" devices="tripinfo_flow_0.1" vType="motorcycle" speedFactor="0.85" vaporized=""/>
    <tripinfo id="flow_27.2" depart="39.00" departLane="e30_0" departPos="2.10" departSpeed="13.64" departDelay="0.50" arrival="120.00" arrivalLane="e25_0" arrivalPos="189.60" arrivalSpeed="13.01" duration="81.00" routeLength="797.90" waitingTime="14.00" waitingCount="1" stopTime="0.00" timeLoss="21.73" rerouteNo="0" devices="tripinfo_flow_27.2" vType="motorcycle" speedFactor="0.98" vaporized=""/>
    <tripinfo id="flow_6.5" depart="40.00" departLane="e46_1" departPos="2.10" departSpeed="14.12" departDelay="0.00" arrival="120.00" arrivalLane="e41_1" arrivalPos="189.60" arrivalSpeed="14.01" duration="80.00" routeLength="797.90" waitingTime="10.00" waitingCount="1" stopTime="0.00" timeLoss="22.94" rerouteNo="0" devices="tripinfo_flow_6.5" vType="motorcycle" speedFactor="1.02" vaporized=""/>
    <tripinfo id="flow_2.0" depart="0.00" departLane="e42_0" departPos="10.10" departSpeed="13.89" departDelay="0.00" arrival="121.00" arrivalLane="e37_0" arrivalPos="189.60" arrivalSpeed="13.80" duration="121.00" routeLength="789.90" waitingTime="28.00" waitingCount="3" stopTime="0.00" timeLoss="63.15" rerouteNo="0" devices="tripinfo_flow_2.0" vType="bus_truck" speedFactor="1.00" vaporized=""/>
    <tripinfo id="flow_0.2" depart="16.00" departLane="e42_1" departPos="2.10" departSpeed="15.22" departDelay="0.00" arrival="121.00" arrivalLane="e37_1" arrivalPos="189.60" arrivalSpeed="15.14" duration="105.00" routeLength="797.90" waitingTime="21.00" waitingCount="3" stopTime="0.00" timeLoss="51.88" rerouteNo="0" devices="tripinfo_flow_0.2" vType="motorcycle" speedFactor="1.10" vaporized=""/>
    <tripinfo id="flow_0.4" depart="32.00" departLane="e42_0" departPos="2.10" departSpeed="13.51" departDelay="0.00" arrival="122.00" arrivalLane="e37_1" arrivalPos="189.60" arrivalSpeed="12.38" duration="90.00" routeLength="797.90" waitingTime="12.00" waitingCount="1" stopTime="0.00" timeLoss="30.81" rerouteNo="0" devices="tripinfo_flow_0.4" vType="motorcycle" speedFactor="0.97" vaporized=""/>
    <tripinfo id="flow_9.4" depart="64.00" departLane="e36_1" departPos="2.10" departSpeed="14.37" departDelay="0.00" arrival="123.00" arrivalLane="e43_0" arrivalPos="189.60" arrivalSpeed="13.79" duration="59.00" routeLength="797.90" waitingTime="0.00" waitingCount="0" stopTime="0.00" timeLoss="2.77" rerouteNo="0" devices="tripinfo_flow_9.4" vType="motorcycle" speedFactor="1.03" vaporized=""/>
    <tripinfo id="flow_9.3" depart="48.00" departLane="e36_0" departPos="2.10" departSpeed="13.91" departDelay="0.00" arrival="126.00" arrivalLane="e43_0" arrivalPos="189.60" arrivalSpeed="13.01" duration="78.00" routeLength="797.90" waitingTime="12.00" waitingCount="1" stopTime="0.00" timeLoss="19.89" rerouteNo="0" devices="tripinfo_flow_9.3" vType="motorcycle" speedFactor="1.00" vaporized=""/>
    <tripinfo id="flow_21.1" depart="24.00" departLane="e26_0" departPos="2.10" departSpeed="12.60" departDelay="0.00" arrival="130.00" arrivalLane="e33_0" arrivalPos="189.60" arrivalSpeed="12.47" duration="106.00" routeLength="797.90" waitingTime="33.00" waitingCount="1" stopTime="0.00" timeLoss="42.40" rerouteNo="0" devices="tripinfo_flow_21.1" vType="motorcycle" speedFactor="0.91" vaporized=""/>
    <tripinfo id="flow_18.2" depart="48.00" departLane="e24_1" departPos="2.10" departSpeed="14.20" departDelay="0.00" arrival="130.00" arrivalLane="e31_0" arrivalPos="189.60" arrivalSpeed="13.97" duration="82.00" routeLength="797.90" waitingTime="10.00" waitingCount="2" stopTime="0.00" timeLoss="25.06" rerouteNo="0" devices="tripinfo_flow_18.2" vType="motorcycle" speedFactor="1.02" vaporized=""/>
    <tripinfo id="flow_21.2" depart="48.00" departLane="e26_0" departPos="2.10" departSpeed="14.12" departDelay="0.00" arrival="131.00" arrivalLane="e33_1" arrivalPos="189.60" arrivalSpeed="13.50" duration="83.00" routeLength="797.90" waitingTime="10.00" waitingCount="1" stopTime="0.00" timeLoss="25.96" rerouteNo="0" devices="tripinfo_flow_21.2" vType="motorcycle" speedFactor="1.02" vaporized=""/>
    <tripinfo id="flow_23.0" depart="1.00" departLane="e26_1" departPos="10.10" departSpeed="7.70" departDelay="1.00" arrival="135.00" arrivalLane="e33_0" arrivalPos="189.60" arrivalSpeed="13.80" duration="134.00" routeLength="789.90" waitingTime="50.00" waitingCount="2" stopTime="0.00" timeLoss="76.89" rerouteNo="0" devices="tripinfo_flow_23.0" vType="bus_truck" speedFactor="1.00" vaporized=""/>
    <tripinfo id="flow_15.3" depart="48.00" departLane="e40_0" departPos="2.10" departSpeed="13.99" departDelay="0.00" arrival="141.00" arrivalLane="e47_0" arrivalPos="189.60" arrivalSpeed="12.96" duration="93.00" routeLength="797.90" waitingTime="20.00" waitingCount="2" stopTime="0.00" timeLoss="35.76" rerouteNo="0" devices="tripinfo_flow_15.3" vType="motorcycle" speedFactor="1.01" vaporized=""/>
    <tripinfo id="flow_16.1" depart="60.00" departLane="e40_1" departPos="4.60" departSpeed="13.23" departDelay="0.00" arrival="144.00" arrivalLane="e47_0" arrivalPos="189.60" arrivalSpeed="12.89" duration="84.00" routeLength="795.40" waitingTime="9.00" waitingCount="1" stopTime="0.00" timeLoss="23.73" rerouteNo="0" devices="tripinfo_flow_16.1" vType="car" speedFactor="0.95" vaporized=""/>
    <tripinfo id="flow_6.9" depart="72.00" departLane="e46_0" departPos="2.10" departSpeed="15.26" departDelay="0.00" arrival="144.00" arrivalLane="e41_1" arrivalPos="189.60" arrivalSpeed="14.59" duration="72.00" routeLength="797.90" waitingTime="3.00" waitingCount="1" stopTime="0.00" timeLoss="19.46" rerouteNo="0" devices="tripinfo_flow_6.9" vType="motorcycle" speedFactor="1.10" vaporized=""/>
    <tripinfo id="flow_12.0" depart="0.00" departLane="e38_0" departPos="2.10" departSpeed="13.82" departDelay="0.00" arrival="145.00" arrivalLane="e45_0" arrivalPos="189.60" arrivalSpeed="13.17" duration="145.00" routeLength="797.90" waitingTime="72.00" waitingCount="2" stopTime="0.00" timeLoss="86.81" rerouteNo="0" devices="tripinfo_flow_12.0" vType="motorcycle" speedFactor="0.99" vaporized=""/>
    <tripinfo id="flow_6.8" depart="64.00" departLane="e46_1" departPos="2.10" departSpeed="14.08" departDelay="0.00" arrival="145.00" arrivalLane="e41_0" arrivalPos="189.60" arrivalSpeed="14.07" duration="81.00" routeLength="797.90" waitingTime="5.00" waitingCount="1" stopTime="0.00" timeLoss="24.19" rerouteNo="0" devices="tripinfo_flow_6.8" vType="motorcycle" speedFactor="1.01" vaporized=""/>
    <tripinfo id="flow_13.0" depart="0.00" departLane="e38_1" departPos="4.60" departSpeed="14.16" departDelay="0.00" arrival="146.00" arrivalLane="e45_1" arrivalPos="189.60" arrivalSpeed="13.50" duration="146.00" routeLength="795.40" waitingTime="75.00" waitingCount="2" stopTime="0.00" timeLoss="89.12" rerouteNo="0" devices="tripinfo_flow_13.0" vType="car" speedFactor="1.02" vaporized=""/>
    <tripinfo id="flow_12.1" depart="16.00" departLane="e38_0" departPos="2.10" departSpeed="15.87" departDelay="0.00" arrival="146.00" arrivalLane="e45_0" arrivalPos="189.60" arrivalSpeed="15.19" duration="130.00" routeLength="797.90" waitingTime="61.00" waitingCount="2" stopTime="0.00" timeLoss="79.61" rerouteNo="0" devices="tripinfo_flow_12.1" vType="motorcycle" speedFactor="1.14" vaporized=""/>
    <tripinfo id="flow_6.10" depart="80.00" departLane="e46_1" departPos="2.10" departSpeed="14.74" departDelay="0.00" arrival="146.00" arrivalLane="e41_1" arrivalPos="189.60" arrivalSpeed="13.67" duration="66.00" routeLength="797.90" waitingTime="2.00" waitingCount="1" stopTime="0.00" timeLoss="11.47" rerouteNo="0" devices="tripinfo_flow_6.10" vType="motorcycle" speedFactor="1.06" vaporized=""/>
    <tripinfo id="flow_7.2" depart="60.00" departLane="e46_0" departPos="4.60" departSpeed="14.79" departDelay="0.00" arrival="147.00" arrivalLane="e41_0" arrivalPos="189.60" arrivalSpeed="14.77" duration="87.00" routeLength="795.40" waitingTime="9.00" waitingCount="1" stopTime="0.00" timeLoss="32.82" rerouteNo="0" devices="tripinfo_flow_7.2" vType="car" speedFactor="1.06" vaporized=""/>
    <tripinfo id="flow_33.4" depart="78.00" departLane="e34_0" departPos="2.10" departSpeed="15.32" departDelay="1.00" arrival="149.00" arrivalLane="e29_1" arrivalPos="189.60" arrivalSpeed="14.44" duration="71.00" routeLength="797.90" waitingTime="8.00" waitingCount="1" stopTime="0.00" timeLoss="18.20" rerouteNo="0" devices="tripinfo_flow_33.4" vType="motorcycle" speedFactor="1.10" vaporized=""/>
    <tripinfo id="flow_1.0" depart="1.00" departLane="e42_1" departPos="4.60" departSpeed="9.57" departDelay="1.00" arrival="150.00" arrivalLane="e39_0" arrivalPos="189.60" arrivalSpeed="12.36" duration="149.00" routeLength="982.18" waitingTime="52.00" waitingCount="2" stopTime="0.00" timeLoss="73.30" rerouteNo="0" devices="tripinfo_flow_1.0" vType="car" speedFactor="0.95" vaporized=""/>
    <tripinfo id="flow_33.2" depart="39.00" departLane="e34_0" departPos="2.10" departSpeed="15.10" departDelay="0.50" arrival="151.00" arrivalLane="e29_0" arrivalPos="189.60" arrivalSpeed="14.71" duration="112.00" routeLength="797.90" waitingTime="41.00" waitingCount="1" stopTime="0.00" timeLoss="58.34" rerouteNo="0" devices="tripinfo_flow_33.2" vType="motorcycle" speedFactor="1.09" vaporized=""/>
    <tripinfo id="flow_33.3" depart="58.00" departLane="e34_0" departPos="2.10" departSpeed="12.59" departDelay="0.25" arrival="153.00" arrivalLane="e29_1" arrivalPos="189.60" arrivalSpeed="12.05" duration="95.00" routeLength="797.90" waitingTime="15.00" waitingCount="2" stopTime="0.00" timeLoss="31.58" rerouteNo="0" devices="tripinfo_flow_33.3" vType="motorcycle" speedFactor="0.91" vaporized=""/>
    <tripinfo id="flow_1.1" depart="30.00" departLane="e42_1" departPos="4.60" departSpeed="14.45" departDelay="0.00" arrival="155.00" arrivalLane="e39_0" arrivalPos="189.60" arrivalSpeed="13.80" duration="125.00" routeLength="982.18" waitingTime="21.00" waitingCount="4" stopTime="0.00" timeLoss="55.95" rerouteNo="0" devices="tripinfo_flow_1.1" vType="car" speedFactor="1.04" vaporized=""/>
    <tripinfo id="flow_15.5" depart="80.00" departLane="e40_0" departPos="2.10" departSpeed="11.42" departDelay="0.00" arrival="155.00" arrivalLane="e47_0" arrivalPos="189.60" arrivalSpeed="10.90" duration="75.00" routeLength="797.90" waitingTime="0.00" waitingCount="0" stopTime="0.00" timeLoss="4.40" rerouteNo="0" devices="tripinfo_flow_15.5" vType="motorcycle" speedFactor="0.82" vaporized=""/>
    <tripinfo id="flow_27.4" depart="78.00" departLane="e30_1" departPos="2.10" departSpeed="14.87" departDelay="1.00" arrival="159.00" arrivalLane="e25_0" arrivalPos="189.60" arrivalSpeed="14.35" duration="81.00" routeLength="797.90" waitingTime="16.00" waitingCount="1" stopTime="0.00" timeLoss="26.58" rerouteNo="0" devices="tripinfo_flow_27.4" vType="motorcycle" speedFactor="1.07" vaporized=""/>
    <tripinfo id="flow_6.4" depart="32.00" departLane="e46_0" departPos="2.10" departSpeed="14.66" departDelay="0.00" arrival="160.00" arrivalLane="e39_0" arrivalPos="189.60" arrivalSpeed="14.49" duration="128.00" routeLength="984.68" waitingTime="27.00" waitingCount="2" stopTime="0.00" timeLoss="59.17" rerouteNo="0" devices="tripinfo_flow_6.4" vType="motorcycle" speedFactor="1.06" vaporized=""/>
    <tripinfo id="flow_24.2" depart="48.00" departLane="e28_1" departPos="2.10" departSpeed="12.39" departDelay="0.00" arrival="161.00" arrivalLane="e35_0" arrivalPos="189.60" arrivalSpeed="12.32" duration="113.00" routeLength="797.90" waitingTime="33.00" waitingCount="2" stopTime="0.00" timeLoss="48.12" rerouteNo="0" devices="tripinfo_flow_24.2" vType="motorcycle" speedFactor="0.89" vaporized=""/>
    <tripinfo id="flow_24.3" depart="72.00" departLane="e28_0" departPos="2.10" departSpeed="12.81" departDelay="0.00" arrival="161.00" arrivalLane="e35_1" arrivalPos="189.60" arrivalSpeed="11.78" duration="89.00" routeLength="797.90" waitingTime="11.00" waitingCount="2" stopTime="0.00" timeLoss="26.14" rerouteNo="0" devices="tripinfo_flow_24.3" vType="motorcycle" speedFactor="0.92" vaporized=""/>
    <tripinfo id="flow_19.1" depart="90.00" departLane="e24_1" departPos="4.60" departSpeed="17.03" departDelay="0.00" arrival="162.00" arrivalLane="e31_0" arrivalPos="189.60" arrivalSpeed="16.18" duration="72.00" routeLength="795.40" waitingTime="13.00" waitingCount="1" stopTime="0.00" timeLoss="24.73" rerouteNo="0" devices="tripinfo_flow_19.1" vType="car" speedFactor="1.23" vaporized=""/>
    <tripinfo id="flow_6.2" depart="16.00" departLane="e46_0" departPos="2.10" departSpeed="13.83" departDelay="0.00" arrival="163.00" arrivalLane="e39_0" arrivalPos="189.60" arrivalSpeed="12.76" duration="147.00" routeLength="984.68" waitingTime="41.00" waitingCount="5" stopTime="0.00" timeLoss="74.00" rerouteNo="0" devices="tripinfo_flow_6.2" vType="motorcycle" speedFactor="1.00" vaporized=""/>
    <tripinfo id="flow_18.3" depart="72.00" departLane="e24_0" departPos="2.10" departSpeed="14.02" departDelay="0.00" arrival="165.00" arrivalLane="e31_0" arrivalPos="189.60" arrivalSpeed="13.03" duration="93.00" routeLength="797.90" waitingTime="19.00" waitingCount="2" stopTime="0.00" timeLoss="35.86" rerouteNo="0" devices="tripinfo_flow_18.3" vType="motorcycle" speedFactor="1.01" vaporized=""/>
    <tripinfo id="flow_7.3" depart="90.00" departLane="e46_1" departPos="4.60" departSpeed="14.41" departDelay="0.00" arrival="165.00" arrivalLane="e41_0" arrivalPos="189.60" arrivalSpeed="13.91" duration="75.00" routeLength="795.40" waitingTime="10.00" waitingCount="1" stopTime="0.00" timeLoss="19.06" rerouteNo="0" devices="tripinfo_flow_7.3" vType="car" speedFactor="1.04" vaporized=""/>
    <tripinfo id="flow_18.4" depart="96.00" departLane="e24_0" departPos="2.10" departSpeed="15.68" departDelay="0.00" arrival="165.00" arrivalLane="e31_1" arrivalPos="189.60" arrivalSpeed="14.53" duration="69.00" routeLength="797.90" waitingTime="6.00" waitingCount="1" stopTime="0.00" timeLoss="17.46" rerouteNo="0" devices="tripinfo_flow_18.4" vType="motorcycle" speedFactor="1.13" vaporized=""/>
    <tripinfo id="flow_6.3" depart="24.00" departLane="e46_0" departPos="2.10" departSpeed="13.02" departDelay="0.00" arrival="166.00" arrivalLane="e39_0" arrivalPos="189.60" arrivalSpeed="12.25" duration="142.00" routeLength="984.68" waitingTime="29.00" waitingCount="2" stopTime="0.00" timeLoss="64.24" rerouteNo="0" devices="tripinfo_flow_6.3" vType="motorcycle" speedFactor="0.94" vaporized=""/>
    <tripinfo id="flow_3.0" depart="0.00" departLane="e44_0" departPos="2.10" departSpeed="15.72" departDelay="0.00" arrival="167.00" arrivalLane="e39_0" arrivalPos="189.60" arrivalSpeed="15.69" duration="167.00" routeLength="797.90" waitingTime="102.00" waitingCount="2" stopTime="0.00" timeLoss="116.13" rerouteNo="0" devices="tripinfo_flow_3.0" vType="motorcycle" speedFactor="1.13" vaporized=""/>
    <tripinfo id="flow_30.1" depart="20.00" departLane="e32_1" departPos="2.10" departSpeed="15.04" departDelay="0.75" arrival="170.00" arrivalLane="e27_0" arrivalPos="189.60" arrivalSpeed="14.76" duration="150.00" routeLength="797.90" waitingTime="73.00" waitingCount="3" stopTime="0.00" timeLoss="96.84" rerouteNo="0" devices="tripinfo_flow_30.1" vType="motorcycle" speedFactor="1.08" vaporized=""/>
    <tripinfo id="flow_30.0" depart="0.00" departLane="e32_0" departPos="2.10" departSpeed="13.85" departDelay="0.00" arrival="172.00" arrivalLane="e27_0" arrivalPos="189.60" arrivalSpeed="13.79" duration="172.00" routeLength="797.90" waitingTime="97.00" waitingCount="3" stopTime="0.00" timeLoss="113.99" rerouteNo="0" devices="tripinfo_flow_30.0" vType="motorcycle" speedFactor="1.00" vaporized=""/>
    <tripinfo id="flow_4.0" depart="0.00" departLane="e44_1" departPos="4.60" departSpeed="12.94" departDelay="0.00" arrival="173.00" arrivalLane="e39_0" arrivalPos="189.60" arrivalSpeed="12.76" duration="173.00" routeLength="795.40" waitingTime="95.00" waitingCount="2" stopTime="0.00" timeLoss="111.00" rerouteNo="0" devices="tripinfo_flow_4.0" vType="car" speedFactor="0.93" vaporized=""/>
    <tripinfo id="flow_30.2" depart="39.00" departLane="e32_0" departPos="2.10" departSpeed="13.99" departDelay="0.50" arrival="173.00" arrivalLane="e27_1" arrivalPos="189.60" arrivalSpeed="12.88" duration="134.00" routeLength="797.90" waitingTime="55.00" waitingCount="2" stopTime="0.00" timeLoss="76.54" rerouteNo="0" devices="tripinfo_flow_30.2" vType="motorcycle" speedFactor="1.01" vaporized=""/>